  2.7400348e-01   9.1972062e-03
 -1.3978604e+00   2.5191992e-03
  2.0937322e-01   2.3026820e-03
 -7.0013261e-01   1.6972986e-04
 -2.8542891e+00   3.3770525e-03
 -2.6844554e+00   5.1344074e-02
  7.1609062e-01   6.0438123e-03
  1.3142308e+00   5.1397897e-02
 -2.1084452e+00   4.0437588e-03
 -9.1663951e-01   3.0180106e-02
 -1.7556990e+00   5.8450443e-03
  5.4501104e-01   5.1723840e-03
  1.3818911e+00   9.3237730e-03
 -6.4210600e-01   7.5096060e-03
  1.1879736e+00   2.3162071e-02
  1.8405092e+00   1.3975826e-02
  4.5197967e-01   3.2724347e-03
  3.7805381e-01   3.9780466e-03
 -1.0116931e+00   1.0550545e-03
  1.0609330e+00   2.0357182e-02
 -3.0310645e+00   9.0491287e-03
  2.3039870e+00   7.6183706e-04
 -3.4861987e+00   4.0599858e-04
  3.1663487e+00   3.1485781e-02
  1.7008845e+00   2.6192721e-02
 -4.3339667e-01   8.1616646e-04
 -1.0150679e+00   2.0882629e-03
 -2.2526674e-01   7.4522473e-02
  1.3261022e-01   2.3730244e-02
 -6.2961662e-01   3.4847561e-02
  9.5293909e-01   3.8689323e-02
 -9.7098595e-01   1.6757464e-02
 -1.7199702e+00   1.8017880e-04
 -3.5734782e-01   1.0980903e-02
 -2.0129515e-01   9.3590440e-03
  2.4761698e+00   3.6896099e-03
 -1.2426364e+00   4.0004011e-03
 -3.2753211e-01   2.9829638e-03
 -1.7672261e+00   2.8444102e-03
 -6.1793369e-01   1.3749810e-03
 -1.6848233e-01   1.8696565e-02
  7.0480132e-01   4.2244503e-03
  1.9960302e+00   1.4324316e-02
  2.1520414e+00   4.6820141e-02
 -1.0231409e+00   3.3529267e-02
 -1.2590069e-01   1.0388389e-02
 -4.9566382e-01   3.3397004e-02
 -1.9075407e+00   1.2670745e-02
  2.0533998e-03   7.8530628e-03
  1.7585021e+00   2.1097504e-03
  1.8377250e+00   2.6893804e-02
  2.9193306e-02   8.5925357e-03
 -1.0348897e+00   8.3317691e-03
  3.7138507e-01   1.2288636e-02
  1.0732743e+00   1.4509183e-02
 -2.7511981e-01   1.0515401e-02
  2.9343712e-01   1.8205531e-03
  3.9862758e-01   4.3828276e-04
 -4.7119334e-01   4.5032901e-04
  2.4852999e-01   3.9424680e-02
  1.0512179e+00   3.6741160e-02
  1.0742556e+00   1.8403266e-02
 -8.8785511e-01   2.7669892e-03
  6.7012507e-01   2.5745694e-02
  5.3285331e-01   6.9411032e-02
  7.7799165e-01   4.3806762e-02
  1.3927720e+00   2.1885155e-02
  4.6012211e-01   7.0295066e-02
  5.0254506e-01   7.0706857e-03
  3.3949202e-01   4.1047712e-03
  3.2610748e-02   1.5143522e-02
 -5.8993781e-01   2.0285805e-03
 -5.9073702e-02   9.7188348e-04
 -4.1515832e+00   2.0328919e-04
 -1.1654186e+00   6.0416614e-03
 -1.3867472e+00   2.8051667e-02
 -2.1106226e+00   4.5912755e-03
  1.7978868e+00   2.6765119e-02
  1.8067664e+00   1.1588895e-02
 -3.5530992e+00   3.3461712e-02
 -1.1422662e+00   2.0047337e-02
  8.8625990e-02   6.6151354e-03
  1.6863086e+00   1.8739417e-02
 -5.7437682e-01   1.3970659e-02
  1.8876049e-01   1.7324394e-02
 -4.0909982e-01   1.5872838e-02
 -1.8084595e-01   1.9512534e-02
 -2.4417439e-01   7.2044702e-03
  1.1547968e+00   9.2810718e-03
 -2.3595233e-01   2.7190463e-03
 -2.1544269e-01   6.9639413e-03
  2.6983650e+00   7.9184119e-04
  4.6379066e+00   2.5899360e-02
  4.5740042e+00   2.9512195e-02
  4.0778477e-02   3.1925689e-02
  2.4132767e+00   9.0757506e-03
 -4.5842153e-01   1.6125854e-02
  2.8033903e-01   9.4211177e-04
  7.6427728e-01   4.0062453e-04
 -4.0810624e-01   2.5754418e-02
  5.6315362e-01   7.9288788e-02
  2.3767519e+00   5.5331667e-03
  2.8658783e-01   6.5936090e-04
 -2.4974945e-01   1.2491716e-02
 -1.8306793e+00   3.6944123e-03
 -3.5363917e+00   6.9394358e-04
 -3.5069963e-01   1.3990666e-03
 -2.3823049e+00   1.4864149e-03
  3.3324549e-01   3.4459715e-03
  2.4143149e-01   3.8511868e-04
  9.9793488e-01   1.1644239e-02
  9.0411651e-01   4.3093424e-02
 -2.1198496e-01   2.6691927e-02
 -8.3670521e-01   3.0990434e-04
  5.0143814e-01   3.4737043e-02
  1.9802686e+00   2.3627918e-02
  5.0927716e-01   9.3424208e-03
  6.2858635e-01   2.3924537e-02
  2.2155614e+00   1.2604955e-02
 -1.4011788e+00   1.9440560e-02
 -1.4084355e+00   3.3301022e-02
  1.1918722e+00   9.3895057e-03
  2.2129965e-01   2.7099907e-04
 -2.3432320e-01   3.9863116e-03
  6.9019766e+00   4.0038112e-03
  1.4594032e+00   2.1872588e-03
 -1.3106861e+00   5.7150844e-02
 -1.2740467e-01   4.5821010e-04
 -2.5609663e+00   3.2977888e-03
 -9.1700828e-01   5.3771432e-03
 -3.5125697e-01   4.2957414e-02
 -6.5178812e-01   1.9674892e-02
  6.4499147e-02   3.1369250e-02
 -2.4396304e-02   3.9329313e-02
 -1.7346256e+00   4.7243433e-03
 -1.2076057e-01   2.6267539e-03
 -9.5148557e-01   2.6747502e-02
 -1.0830369e+00   5.2424353e-03
 -5.5880815e-01   2.7272239e-02
 -1.1757542e+00   3.8959149e-03
  1.0644296e+00   7.8845555e-03
  1.2457838e+00   6.0599856e-04
 -8.5702366e-01   2.3510678e-04
  7.8784418e-01   1.3484810e-03
  8.6272091e-02   4.0284870e-03
 -3.4906158e+00   2.8847989e-03
  3.8048174e-02   2.6404196e-02
 -3.1180696e+00   4.0980279e-03
  4.6325140e+00   5.1624579e-03
  6.6945088e-01   7.6175397e-03
 -1.8154145e+00   2.9077623e-02
 -3.1442535e-01   7.3857890e-03
 -8.6195230e-01   7.6742717e-03
  4.8210468e+00   1.8315874e-02
  2.1950037e+00   2.3296036e-04
  7.0209271e-01   1.2017911e-02
  4.7076051e-03   2.6611341e-02
  4.4500084e+00   4.7489740e-03
  2.0046098e+00   1.7640213e-04
  4.4557420e-03   3.2362469e-02
 -8.6994421e-01   3.0707351e-03
 -2.0861144e+00   4.7801235e-03
  4.2554407e+00   9.3166213e-03
 -3.3901733e-01   1.7420705e-03
  8.8478333e-01   1.6740503e-02
 -4.9851102e-01   3.7205997e-03
  2.5947945e+00   4.1977097e-03
 -3.4765160e-01   1.4519707e-02
  6.6340321e-01   5.3305045e-02
  9.8017126e-01   2.0335035e-02
 -1.1679362e+00   1.1348784e-03
 -1.0386771e+00   7.4728499e-03
 -2.0870423e+00   2.2480495e-02
 -1.5701647e+00   4.2559832e-02
 -5.8397061e-01   5.9531655e-02
 -1.1202031e-01   7.1606808e-03
  5.5250436e-01   5.8465386e-03
 -1.4429592e+00   2.2833044e-02
 -1.2298506e+00   1.3503002e-03
  1.1562276e+00   1.2782847e-02
  1.5842873e+00   8.2320329e-03
  3.7821692e-01   2.3218313e-02
 -1.3573430e-01   1.3762077e-02
 -1.1344962e+00   2.9079923e-02
 -8.8091934e-01   2.7678940e-03
  1.2843572e+00   1.0209174e-02
  3.6249986e-01   1.1310939e-02
  2.3868804e+00   4.1573001e-03
 -8.4401584e-01   1.2913611e-02
  1.8850741e-01   6.3928119e-03
  9.4144875e-01   2.7739052e-03
 -1.0614021e+00   4.9237274e-02
  1.3036622e+00   3.9577845e-04
 -2.1659036e-01   1.0216015e-02
 -4.8322085e-02   8.4100533e-03
 -6.6024828e-01   3.5609864e-02
 -2.0065687e+00   1.5812809e-02
 -1.3023993e+00   3.2940444e-02
 -1.3849926e+00   2.0390032e-03
 -5.2993971e-01   3.4920800e-02
 -1.5868059e+00   4.8136730e-02
  1.1834643e+00   1.5873272e-02
  1.0764303e+00   6.1984374e-03
 -1.5528080e-01   3.4355655e-02
  4.0371135e-01   5.0181560e-03
 -1.9221565e+00   1.3191483e-03
  1.3741311e+00   2.3869045e-02
 -7.7034110e-01   2.1476443e-03
  6.7812294e-01   9.1358013e-03
  6.7036456e-01   1.4457384e-02
 -2.6786947e+00   5.1693982e-03
  7.0391220e-01   3.9267875e-04
 -9.5413297e-01   1.7923212e-02
  9.2159860e-02   1.5965217e-03
 -5.8086228e-01   2.1291641e-04
  1.8001086e+00   4.1991260e-02
  7.0561689e-01   3.7835571e-03
  6.7965382e-01   4.0437588e-03
  7.1152723e-01   1.9820075e-02
 -6.5827024e-01   1.8809343e-02
  1.9790817e+00   6.0549967e-02
  1.5988415e+00   1.1267089e-02
  1.7761180e-02   2.5917597e-03
  5.3671724e-01   1.9435175e-03
 -1.1530919e+00   5.5045471e-02
 -7.2359747e-01   2.0760943e-03
  6.0714799e-01   1.1662830e-02
 -1.7941495e+00   1.1220023e-02
 -3.1052675e+00   3.8909719e-03
  6.2870514e-01   1.5315139e-02
  4.8224103e-01   7.5340238e-03
 -1.0069245e+00   3.1029864e-03
 -1.9863604e+00   4.9642986e-03
 -1.4880524e+00   1.1780808e-03
  7.6667047e-01   1.5150035e-02
 -1.3854064e+00   7.6691896e-02
 -1.0017826e-01   4.3152748e-03
  3.1872332e-01   2.7660405e-02
 -3.4717536e-01   2.0315077e-02
 -2.1556118e-01   3.7362561e-02
 -1.1267388e-01   4.0355384e-02
  1.9025931e-02   7.1471622e-03
 -9.8896515e-01   3.7362095e-02
  5.1078075e-01   4.5160618e-02
  6.8494451e-01   4.0656742e-02
  4.5368261e+00   1.3819126e-03
 -1.9784545e+00   4.1821995e-03
 -6.1857784e-01   1.0226349e-02
  1.7932925e+00   3.1860729e-04
 -4.1113791e+00   4.9930140e-03
 -1.2839378e+00   6.3058741e-02
 -2.2920761e+00   2.9944985e-03
  2.1011877e+00   2.8705287e-03
  9.0539515e-01   4.7274330e-03
  1.8979657e+00   2.7342062e-04
 -2.2848473e+00   6.1891045e-02
  6.2484401e-01   8.2509574e-03
 -1.5270675e+00   1.1214637e-02
  1.5127681e+00   2.9309271e-03
  1.5439785e+00   3.0917155e-02
  2.0152519e+00   2.0812174e-02
 -6.7844659e-02   2.8022697e-02
 -6.1859760e-02   1.2182370e-03
 -6.2425739e-01   5.1127128e-02
  6.5866691e-01   3.2602657e-02
  2.6614389e+00   1.4357686e-02
 -1.6953495e+00   1.3180377e-02
  1.0242549e-01   5.0692465e-03
  1.2349458e-01   9.2974827e-03
  6.0863787e-01   2.0104628e-02
  1.2698892e+00   3.7351906e-02
 -2.3784494e-01   7.7826217e-02
 -9.3502027e-01   1.6350286e-02
  5.1895976e-01   6.7361787e-02
  8.7825620e-01   3.8306646e-02
 -8.9784408e-01   7.2285980e-02
  9.5141912e-01   3.8525166e-03
 -6.0284412e-01   5.7835408e-02
 -4.5020202e-01   4.2380784e-02
  3.9608949e-01   3.7308518e-02
 -2.0648053e+00   3.3394769e-03
  4.0394130e+00   2.4675711e-03
  3.4535139e+00   2.9538907e-03
  7.7455050e-01   1.6261713e-03
 -2.6095059e+00   1.6961056e-03
 -1.3508211e+00   5.6619057e-03
  1.8539397e-01   4.9698572e-03
 -1.5614172e+00   4.6747071e-03
  1.3899469e+00   5.3177788e-03
 -3.5392506e+00   5.3247157e-03
  1.4919938e+00   7.2067282e-03
 -2.5271590e+00   2.4526104e-02
 -1.8059502e+00   4.8991182e-04
  5.7850683e-01   8.5367914e-03
 -1.2942826e+00   5.0636032e-03
  1.6563287e-01   7.5402251e-03
  1.7864499e+00   2.0451427e-02
  2.3095915e+00   2.2967325e-03
  3.3399830e+00   1.1125213e-04
 -1.1306211e+00   3.0128762e-02
  6.2607759e-01   5.0102263e-03
  1.5392374e+00   2.1186210e-03
  1.0911547e+00   6.0330564e-04
  3.8248329e+00   9.1379676e-03
 -9.2169130e-01   6.6137156e-03
 -4.9754316e-01   6.5178624e-03
  2.4025820e-01   8.1727847e-02
 -7.4428052e-01   1.8249838e-02
 -2.8045690e+00   1.2065477e-02
 -9.6005565e-01   5.0817574e-03
 -1.6142708e+00   9.3085887e-03
 -1.2560475e+00   2.2019483e-03
  5.3163981e-01   2.9814268e-02
  2.7314869e-01   1.1565857e-02
  6.5922511e-01   3.4171494e-03
  2.0375919e+00   3.2141693e-03
  1.9208157e+00   5.3270161e-03
 -1.1850767e+00   1.2382190e-03
  2.5073472e-02   2.9956060e-03
  1.8230611e+00   2.1355045e-04
  1.5820529e+00   6.5659703e-04
 -1.7700349e+00   8.2715452e-03
 -2.7694094e+00   3.1107757e-04
 -1.9395847e+00   9.5432921e-04
 -2.3787265e+00   1.5789166e-03
  8.1760812e-01   1.6206342e-03
 -9.0144116e-01   6.1437307e-04
 -2.1004992e+00   6.9248625e-03
  1.7512521e+00   3.1327126e-03
 -4.8470107e-01   4.6838443e-03
 -1.2775942e+00   5.4168947e-02
 -3.3243856e+00   1.9948119e-02
 -1.7449708e+00   1.8273012e-03
 -1.8499069e+00   1.8415281e-05
 -9.1261393e-01   2.4105694e-02
 -2.2146573e+00   2.5533374e-02
 -1.2472963e+00   2.7327871e-02
 -1.0690004e+00   1.9762660e-03
 -3.6730249e+00   2.9313350e-02
  1.0641394e-02   1.1047497e-02
 -2.7644122e-01   2.4514569e-02
  3.1262386e-01   3.9878972e-03
  3.1566519e-02   1.2464774e-02
  7.7300185e-01   3.7341658e-02
 -4.8048549e+00   1.5889938e-03
  9.4276822e-01   8.1368603e-02
  6.6124931e-02   2.7088864e-02
  1.0764293e-01   3.5050608e-02
 -4.6660832e-01   2.3649953e-02
  5.2316892e-01   1.7680718e-02
 -4.1267511e-02   1.9869847e-02
 -1.1697909e+00   5.8317645e-03
  1.5713524e+00   4.0468033e-03
 -1.5568955e+00   5.8577256e-04
 -9.5364797e-01   4.1883192e-03
 -1.9394720e+00   3.7292439e-02
 -1.7131178e+00   2.4135085e-02
  2.7218115e+00   1.2523739e-02
 -3.9177828e-02   2.1692844e-02
 -1.1073910e+00   9.0132598e-03
 -8.2574618e-01   2.6589328e-02
  2.2942673e-01   2.3403507e-02
  1.9894178e+00   1.3880466e-02
 -1.8373857e+00   1.3957652e-03
  7.8161019e-01   3.2867454e-02
  1.6500509e+00   3.6710326e-02
 -2.7732858e-01   3.5242748e-02
  5.6973606e-01   3.9652423e-03
  1.2033753e+00   3.9418333e-04
  8.7153196e-01   5.2332491e-02
  7.4054372e-01   2.5925940e-02
 -1.2774702e+00   1.1371921e-02
  7.3831725e-01   4.7713248e-03
 -9.0167725e-01   9.2463922e-03
  1.3675892e+00   3.1874557e-03
 -1.2008219e+00   5.2583902e-03
 -1.4967009e+00   2.8641175e-03
 -3.6543927e-01   2.7008208e-02
  5.6291354e-01   4.2361338e-02
  9.4512278e-01   2.0538198e-02
  1.1141612e-01   3.3799469e-02
  1.7676685e+00   5.2477136e-02
 -3.8156888e+00   2.2456997e-04
 -5.4421622e-01   3.9987821e-02
 -1.4313868e-01   4.1922820e-03
  1.3872372e+00   2.1514429e-02
  2.8265097e+00   2.4445646e-03
 -6.9430834e-01   2.0575325e-03
  1.4441694e+00   1.1907079e-02
  2.1856921e+00   8.3020264e-03
 -2.3874742e-01   1.5125760e-02
  4.4868088e-01   2.6762472e-02
 -1.2269688e-01   8.7181069e-02
 -1.0474708e-02   7.6242924e-02
  7.5392473e-01   6.6959965e-03
  2.9692662e+00   2.2851790e-03
  6.0713106e-01   8.7060388e-03
 -1.8780973e-02   7.8058671e-03
 -3.0612975e-01   2.0517236e-02
  7.8563935e-01   3.4943804e-02
  1.3694887e-01   2.8499675e-03
  3.3343408e+00   9.4503192e-03
  1.4402401e+00   2.1327116e-02
 -6.3852590e-01   6.3487417e-03
  1.3044073e-01   6.6174813e-02
 -1.2559171e+00   7.4528225e-02
 -4.3537915e-01   2.9947147e-02
  1.3439395e+00   1.0506374e-02
 -6.0686940e-01   1.8329317e-02
 -5.7871521e-01   4.0600644e-03
 -7.4952370e-01   6.2471707e-03
  1.1652322e-01   6.0028866e-02
  1.0310991e+00   5.2859385e-02
 -4.7298357e-01   4.1678965e-02
  5.2430058e-01   1.1820695e-03
 -1.8966605e-01   6.3555472e-02
 -5.8150208e-01   1.8225256e-02
  1.9890833e+00   1.6781150e-05
 -2.6153257e-01   6.8230607e-02
 -9.8126096e-01   3.7160028e-02
 -1.3522615e+00   1.5550751e-02
 -1.8589400e+00   2.4434149e-03
 -1.3828633e+00   1.0717525e-03
  7.1006000e-01   8.9103794e-03
  8.4693027e-01   5.3790846e-04
 -3.7627167e-01   6.6827697e-04
 -3.0506176e-01   1.2477863e-03
 -9.4661796e-01   1.3186198e-03
 -1.2346336e+00   1.3202963e-02
  4.9959746e-01   1.2029152e-02
 -1.5271847e+00   6.3391849e-03
 -1.7852809e-01   4.0396933e-02
  6.3170618e-01   3.2135248e-02
  4.5454070e-02   3.8132776e-02
 -1.0620252e-02   2.0625500e-02
 -2.9625243e-01   1.7759277e-02
 -4.3904624e+00   1.7302331e-03
  2.2362566e+00   4.0833070e-03
  7.6399750e-01   5.3441483e-03
 -6.9218069e-01   6.1203960e-02
 -7.4974883e-01   1.8463936e-02
 -1.1305165e-01   4.0023390e-02
 -1.5796742e+00   4.4731349e-03
  3.7855875e-01   1.0083496e-02
  7.8219718e-01   2.3694078e-02
 -9.9996406e-01   2.9239134e-04
  4.0718070e-01   1.6771482e-02
 -8.5775107e-01   2.1648051e-02
  7.7791762e-01   6.7737252e-02
  7.4015290e-01   4.5383662e-02
 -1.2703513e+00   2.0026224e-02
 -1.1949679e+00   2.1142995e-02
  1.4279222e-01   1.7988900e-02
 -4.7491118e-01   2.0046216e-02
  1.3066962e+00   1.1070062e-03
 -2.0510867e+00   1.7973502e-03
 -4.2480607e+00   1.6809594e-03
  6.0978818e-01   1.9021858e-04
  3.1107574e+00   1.7323937e-03
  2.5716406e-01   1.0158303e-03
 -2.4781199e+00   3.1576634e-03
  1.8957696e+00   8.7120598e-03
 -2.0630655e+00   1.0644184e-02
 -2.1501656e+00   1.2211412e-02
 -1.9830266e+00   2.7602082e-03
 -1.9435912e-02   1.9915769e-02
 -5.0995380e-01   1.1488262e-02
  8.0472916e-01   1.1062237e-02
 -7.6008938e-02   5.3075567e-04
 -4.9396184e-01   3.4913938e-02
 -6.5938145e-01   7.9879733e-03
  6.2937403e-01   2.0811595e-02
 -4.6142858e-01   6.0108402e-03
 -1.8636796e+00   3.3243170e-03
  2.5396529e-01   1.8952268e-03
 -1.3398045e-01   3.4100004e-02
  9.1201276e-01   4.6664118e-03
 -2.5311689e+00   3.3271059e-03
 -2.0828769e+00   8.0503887e-03
  9.1925669e-01   2.5028775e-02
  7.3936112e-02   8.5237976e-03
 -1.7360616e-01   5.0518237e-02
  1.9119719e-01   1.4323585e-02
 -7.2502208e-01   1.1907476e-03
 -5.4013282e-01   5.3405608e-03
  2.3234054e-01   5.6490995e-02
  2.7842477e-01   3.4065675e-02
  1.1003653e+00   1.1710573e-02
  4.2324248e-01   4.8156220e-02
 -7.8901321e-02   1.2867512e-02
  1.1561714e+00   4.2657612e-04
 -1.4955172e-01   6.5201418e-03
  1.1660013e+00   7.3883240e-03
 -3.0418067e+00   8.5882552e-05
  3.3063501e-01   5.2076625e-03
  1.0658754e+00   6.4311642e-03
  2.2808059e-01   8.8714205e-02
  2.7950540e-01   6.0809642e-02
 -3.3890684e+00   5.7720696e-03
 -7.6063391e-04   8.6545520e-02
 -4.0333575e-01   2.8587304e-02
  3.3303719e-02   2.1588942e-04
 -2.9690617e-01   9.2771970e-04
 -2.6124051e-01   2.7167534e-02
  2.8930537e-02   1.8361555e-02
  1.7079183e-01   1.5849281e-02
 -5.5475318e-01   5.1397736e-05
 -1.2016513e+00   1.1479596e-03
 -2.7000165e+00   6.9398223e-03
  1.3363280e+00   2.6489900e-02
  1.2421931e+00   1.3483335e-03
 -7.7925760e-01   5.9277706e-02
 -9.9700063e-01   9.2208376e-03
 -4.8654252e-01   9.4712479e-03
 -4.9979216e-01   2.8479557e-02
  4.3227050e-01   6.9632129e-05
  1.2859023e+00   1.2043904e-02
  5.0097960e-01   3.6477987e-03
  2.3333475e-01   3.3787335e-03
  1.4383603e+00   1.1968281e-02
 -1.6079923e+00   1.9348800e-02
 -4.8094907e-01   5.5553589e-02
 -5.0839543e-01   9.2134081e-02
  8.7866366e-01   4.6938051e-02
  1.1953962e+00   2.4636596e-02
 -1.4187007e+00   8.9064790e-03
 -2.1536663e+00   7.8397524e-03
  3.0451542e-01   3.2725457e-02
  7.7566981e-01   3.4874525e-02
  8.3387059e-01   2.3363706e-02
  6.3528496e-01   8.8818401e-02
 -4.4505063e-01   9.8260358e-02
  2.4815519e-01   3.8591832e-02
 -1.2811506e+00   4.4765841e-04
  8.2220721e-01   7.6576948e-02
 -1.2806456e+00   1.0741966e-02
  6.9046980e-01   2.6926370e-02
  1.5047928e+00   1.2046007e-02
 -2.1437556e-01   7.7575393e-02
  2.1301711e+00   6.8880487e-03
  3.9888760e-01   3.1251314e-03
  9.7993904e-01   4.8869111e-02
  4.9613308e-02   2.0494951e-02
 -1.2735889e+00   3.8591216e-04
  1.1891907e-01   4.9434133e-02
 -8.2044905e-01   6.8645120e-02
  1.0349100e+00   6.6023067e-02
  3.3618531e-01   2.4446448e-02
  1.2204254e-01   6.2658042e-02
  3.8458610e-01   3.5537861e-02
 -2.5784764e-01   5.6574084e-03
  4.0686795e-01   1.3572612e-02
  6.4513600e-01   4.9963210e-02
 -1.3898361e+00   1.2750331e-02
 -7.4429393e-01   2.6711319e-02
 -1.0494193e+00   4.0185217e-02
 -1.2887516e+00   9.1269764e-04
  2.2787356e-01   3.8037128e-03
 -1.2965803e+00   6.8342173e-03
 -5.0441112e-02   1.9401794e-02
  2.7409371e-02   2.1512848e-03
  6.9867080e-01   2.5954193e-03
  1.4075248e+00   1.5721425e-02
  5.6659579e-01   5.6975326e-03
 -3.5670676e+00   2.5540001e-03
 -3.9316210e-01   2.6977792e-02
  5.1604432e-01   1.2838757e-03
 -2.6568730e+00   1.0508071e-03
  7.7064997e-01   5.2257005e-02
 -4.7585827e-01   2.7138444e-03
 -8.8843942e-01   2.8868208e-02
  1.1040359e+00   3.3050597e-02
 -3.1842631e-01   1.1644459e-02
 -1.2267389e+00   1.3940528e-02
  2.6961035e-01   8.1382148e-02
  4.2231271e-01   6.3353563e-03
 -3.1821287e-01   9.3921274e-02
 -1.0696620e-01   9.6704555e-04
  3.7148586e-01   2.4391345e-03
 -3.0794439e-01   9.1010444e-02
 -1.1891862e+00   1.6084785e-02
 -4.7229278e-01   1.0716654e-02
 -6.7094199e-02   7.9137376e-03
 -3.6880741e-01   4.8628181e-02
 -2.2226496e+00   5.0197606e-04
  3.9798203e-01   2.3908399e-02
 -4.2984590e-01   4.6978537e-02
  1.7839267e+00   1.1255037e-03
  9.7970665e-01   1.6133184e-02
 -2.6427979e+00   9.7957288e-04
  6.8633604e-01   4.8157386e-02
  5.0386351e-01   2.0290398e-04
 -4.4043699e-01   5.7333000e-03
  5.1805574e-02   5.6337629e-02
  8.5208362e-01   2.4995474e-02
  1.4581088e+00   8.0230692e-03
  2.2145684e+00   5.3862331e-04
  3.2003534e+00   2.5498949e-03
  3.2365698e-01   4.9027643e-04
  9.1921830e-01   6.4309011e-03
 -7.3450172e-01   1.2005633e-02
  5.2121747e-01   2.4180636e-02
 -1.3125643e+00   4.8252518e-04
  2.8185174e+00   5.5978945e-03
  1.6998780e+00   5.9030235e-02
 -2.2287729e+00   9.1430917e-03
 -1.0581694e+00   4.9834596e-03
 -1.5595559e+00   5.9480700e-03
  1.0572854e+00   4.1441213e-05
 -2.3608525e+00   4.5863353e-03
 -3.4204051e-01   3.0329162e-02
  1.3645458e-01   5.4221018e-03
 -7.8830266e-01   1.1323413e-02
 -2.1039206e-01   1.0423984e-02
 -1.3128964e+00   1.6696624e-05
 -1.4974172e+00   6.4300820e-03
 -5.9935617e-01   1.7847488e-02
 -4.7045580e-01   7.6351111e-04
  1.2665677e+00   4.3363944e-03
 -5.6228197e-01   4.6112686e-02
 -9.0368205e-01   9.4173402e-02
  7.1935445e-01   3.6824970e-03
  5.8481061e-01   2.9518297e-02
  5.8813177e-02   5.0101168e-03
  1.2467490e+00   1.2511276e-03
  5.3387160e+00   1.2868750e-04
  6.2465322e-01   5.3217314e-02
  5.8941096e-01   9.4203860e-02
 -5.6400949e-01   8.2730576e-02
 -1.1348145e+00   2.4002451e-03
  3.2616124e-01   6.2707174e-03
  1.7261950e+00   7.2136003e-04
  1.1735474e+00   2.8443160e-03
 -2.4548531e+00   1.0264587e-03
 -6.8040890e-01   1.3601197e-03
  1.0332633e+00   1.9980207e-02
  2.5341606e-01   4.4546600e-02
  1.2637982e+00   5.8198106e-03
 -3.4649029e+00   1.8770728e-02
 -1.2594116e+00   7.7438675e-04
  1.6510592e-01   3.1123850e-02
  1.4052343e+00   1.3562366e-03
 -2.6734084e-01   9.4385386e-02
 -3.8694885e+00   5.1033188e-04
 -6.6715427e-02   5.2279383e-02
  1.7447376e+00   5.0753474e-02
 -5.7841539e-01   3.1938439e-03
  2.3532400e-01   1.3265013e-03
 -1.8984878e+00   9.5512258e-04
 -2.6937696e-01   4.5127559e-02
  3.8720903e-01   2.2374277e-04
 -1.3677397e-01   3.8868453e-02
  1.7620516e+00   1.4159455e-02
 -7.4811894e-01   6.7214028e-04
  5.8726698e-01   6.7708157e-03
  1.0985118e+00   2.6012189e-03
  4.4387999e-01   1.2662797e-02
  5.3880173e-01   2.8904348e-03
  4.6832514e-01   1.2565331e-02
  1.2721533e-01   7.9943068e-02
  3.4923226e-01   3.6173002e-03
  5.6065246e-02   4.4549283e-02
  6.7596368e-02   2.0980908e-02
 -4.1808042e-01   9.8174244e-02
  1.6440691e-01   4.5973808e-02
  7.3925889e-01   2.3426946e-02
 -5.5595407e+00   3.0386371e-03
 -1.3791157e+00   1.2649197e-02
 -1.2655433e-01   2.1738594e-03
 -7.6586890e-01   3.5927890e-04
  8.2933170e-01   1.8630693e-02
 -1.5284004e+00   1.9013896e-03
  1.3552786e+00   1.7408082e-03
 -2.7847116e+00   5.1351846e-04
 -3.8091740e-01   6.4120613e-02
  1.1827124e+00   3.9756401e-03
 -8.8470352e-01   1.8826114e-02
 -1.2786807e+00   7.7445067e-02
 -5.7165289e-01   1.3324073e-02
 -3.6106944e-01   5.1970642e-02
 -1.1433178e+00   4.0053199e-03
 -1.2320251e+00   6.5554552e-02
  4.4483724e-03   9.1623766e-03
 -8.1377096e-02   3.4220833e-02
 -1.0678500e+00   5.3924751e-02
  2.6508095e+00   3.2652646e-02
 -2.0428109e+00   3.6320046e-03
 -1.1136500e+00   3.8120646e-03
 -2.1665189e+00   1.8642396e-02
  2.8891796e-01   9.3413353e-02
  1.0882356e-01   9.2851417e-03
 -2.1327455e-01   7.0487067e-02
 -6.4914584e-01   8.4824882e-02
 -1.3106003e+00   1.9954782e-02
 -4.2798352e-01   2.4506403e-03
 -1.2194175e+00   1.1555186e-02
  7.4946135e-01   8.0435269e-02
 -9.2842036e-01   1.0540402e-02
  4.3763887e-02   3.7622333e-02
  1.6348019e+00   7.9799007e-04
  9.6095097e-01   3.7500383e-03
  1.7701797e+00   6.1098072e-03
 -2.5067949e+00   6.2708058e-03
 -9.0982266e-02   2.5958069e-02
  3.0270608e-02   2.2234439e-03
 -3.0386846e+00   8.0587115e-04
  1.4581312e+00   4.8659295e-02
 -1.9631814e+00   7.7757593e-03
  1.2573745e+00   2.0844951e-02
  3.0669343e-01   1.2826413e-03
  1.2410394e+00   8.8869825e-02
 -7.2116137e-01   5.2497994e-02
 -1.0937383e+00   2.4889242e-02
 -3.3307043e-01   2.5209440e-02
 -5.7912195e-01   5.5312414e-02
 -3.2308280e+00   3.1748952e-04
 -2.5331727e-01   2.4162056e-02
  1.2313494e-02   4.8596004e-04
  3.1638417e+00   2.4217716e-03
 -5.3534520e-01   2.4965338e-03
 -1.4102979e+00   3.3436581e-02
 -3.4349784e-01   2.2588093e-02
 -3.1080458e+00   8.2678460e-03
 -9.1170591e-01   1.3277538e-02
 -1.0506464e+00   2.6600404e-02
  1.6703101e-01   1.1330350e-02
  1.2464565e+00   1.3277234e-02
  1.9820748e-01   5.2460842e-03
 -6.2150109e-01   1.4324467e-02
 -5.1744378e-01   1.8962901e-02
  2.2248833e+00   1.0267325e-02
  1.3142066e+00   3.5437014e-02
 -5.6098753e-01   6.7453228e-02
 -2.7698484e-01   5.6898814e-02
 -4.0445250e-02   2.4406549e-03
 -1.3474034e-01   8.3133514e-04
 -1.4027926e+00   5.0160993e-04
 -1.2345018e+00   3.0988841e-03
 -1.4952642e+00   1.9095734e-03
  7.7424932e-01   1.3215579e-04
  1.2411048e+00   8.4179807e-03
 -2.1373098e+00   8.3287498e-03
  7.2579753e-01   9.4094565e-03
 -2.0878763e+00   6.5323646e-04
  3.7271634e-01   3.5915691e-03
 -2.8276837e-01   6.1159716e-03
 -1.6365834e-01   7.0153531e-03
  1.6840889e+00   1.1212368e-02
 -1.5168183e+00   1.3729943e-03
  1.4416976e+00   1.1815769e-03
  3.4761720e+00   1.2615834e-02
  3.6353627e-01   1.8371797e-04
 -2.0380635e+00   6.5187697e-04
 -3.2801237e+00   5.5108417e-04
  6.8871689e-01   5.2548121e-03
  9.5436311e-01   3.5575503e-03
 -8.5054469e-01   5.0835554e-03
  9.5154583e-02   3.8183416e-04
  1.1194555e+00   3.1031319e-03
  1.3547854e+00   2.9721251e-02
  4.0503335e-01   4.9452214e-03
  4.6734203e-02   8.3739934e-03
 -8.4928566e-01   4.0654028e-03
  1.6896704e+00   1.9584127e-02
 -1.1526396e+00   2.2577623e-02
 -5.9163702e-01   1.1139557e-02
  6.0491842e-01   7.5969575e-03
  2.6729820e+00   6.0365670e-03
  2.5784010e-01   1.1691168e-02
  5.4891402e-01   2.2934359e-02
 -1.6519456e+00   2.9228400e-03
  6.7302167e-02   1.0780014e-02
 -1.9868229e-01   2.6174080e-02
  1.7057405e+00   3.3526246e-02
 -1.0358043e+00   1.2707013e-03
 -1.4826549e+00   1.3832198e-03
 -2.9687366e-01   1.4574350e-02
  2.6240122e+00   5.5516203e-04
  2.6793800e-02   1.0000000e-01
  5.8077031e-01   5.0789632e-02
 -6.3999623e-01   4.1889311e-03
  7.1507204e-01   2.9403130e-03
  8.8653302e-01   9.6994173e-03
  1.6141579e+00   9.9878106e-03
 -2.3400168e-01   3.7969373e-02
  2.2394510e-01   7.9237847e-03
 -2.9201886e-01   7.8955386e-03
  8.6880273e-01   5.1592354e-02
 -6.9144142e-01   9.3005173e-02
  6.9197738e-01   5.9339451e-03
  3.8431582e-01   6.3702194e-03
 -1.2893568e+00   5.8013156e-02
  2.9656404e-01   2.5412932e-03
  1.2847458e-01   5.1487945e-03
 -1.6551477e-01   2.8243117e-02
 -3.9109999e-01   8.8690571e-02
  3.5913599e-01   7.9095699e-02
 -9.5866501e-01   2.7974948e-02
  4.4296640e-01   4.6472386e-02
  8.6502396e-02   8.6407252e-03
 -5.7656771e-01   8.6171024e-02
 -3.0945119e-01   5.3517951e-04
 -1.1080618e+00   6.1857596e-04
 -1.7249928e+00   1.2218765e-02
  1.3301694e-01   4.4334040e-04
  8.3480167e-01   5.1809559e-03
  1.8506124e+00   8.5179874e-04
 -3.4937403e+00   3.5537558e-04
  8.4725034e-01   1.0211975e-02
  1.7181588e+00   1.0048362e-03
  3.5300824e-01   6.1434766e-05
  2.2473195e+00   8.4799780e-03
 -3.8632852e-01   1.2680045e-02
  2.5809541e+00   4.5876447e-03
  6.5230656e-01   4.6413716e-02
  9.0582466e-01   7.5885020e-03
 -1.0759001e+00   2.9899919e-02
 -1.6771225e+00   2.3745890e-03
  3.2649009e+00   1.3344387e-04
  6.8477964e-01   1.2121589e-02
  1.1788951e+00   1.2286435e-02
 -2.6587409e-01   5.0446827e-02
 -2.3635156e+00   4.6420381e-03
 -2.4878888e-01   2.9872283e-03
 -2.9559803e+00   2.1176785e-03
 -8.9462394e-01   8.2982723e-03
 -1.9919800e+00   9.4604427e-03
 -2.8544972e+00   4.4863629e-03
  8.3967912e-01   2.9469701e-02
  1.1788149e+00   4.3410249e-02
 -7.5476748e-01   3.4018498e-02
 -4.0796295e-01   8.9567499e-03
 -2.2325106e-01   8.6825572e-02
 -1.2832956e+00   1.0874963e-03
  7.0021904e-01   4.1068286e-02
  4.4892764e-01   5.7946064e-02
 -9.3548512e-03   1.4449876e-02
  6.5638757e-01   1.2831108e-03
 -2.3553202e+00   2.3876403e-04
  9.5626253e-01   6.3144550e-02
 -3.1983929e+00   1.4523241e-03
  3.3943357e+00   2.4095373e-03
 -4.3427620e-02   3.0810980e-03
  1.9868872e+00   1.8341241e-02
 -3.3880156e-01   2.2129763e-02
  4.8662513e-02   1.0137546e-02
  2.0122166e+00   8.9361742e-03
  6.1169809e-01   2.6250412e-04
  1.9292477e-01   2.2849347e-02
  1.7293422e+00   2.5024833e-02
 -1.9238336e+00   1.6948525e-02
 -6.4663611e-02   2.3061796e-03
 -7.1013898e-01   1.0517480e-02
  1.2460951e+00   6.2259245e-03
 -8.0808002e-01   7.0230633e-02
 -7.5637406e-01   3.4079365e-02
 -2.0927451e+00   3.1461450e-03
  2.2831222e-01   3.0316610e-04
  5.8160299e-01   2.1577494e-02
  1.2240822e+00   1.9530371e-03
  1.5886948e+00   9.2226509e-03
  2.3823454e+00   7.3402631e-04
 -8.9151102e-01   5.2922685e-03
  1.7704217e+00   1.4141254e-03
  5.4299313e-01   4.0657770e-02
 -7.5161308e-01   2.9861089e-02
  1.0623981e+00   7.9804495e-02
 -3.8098106e-01   1.3655866e-02
 -1.0335900e+00   8.2934713e-03
 -6.9837548e-02   2.4415335e-02
 -5.2525437e-01   2.3495503e-02
 -4.1527602e-01   9.1161700e-03
 -3.1680131e-01   7.8258164e-02
  2.8560770e-01   4.1687883e-02
  1.0868130e-01   1.5075887e-02
  1.2501924e+00   4.2220482e-04
 -2.2752845e-01   9.4994454e-04
  2.2097440e-01   2.6936406e-02
 -2.2781153e+00   2.4731408e-03
  1.5449990e-01   6.9131404e-03
  1.0212779e+00   4.6843741e-02
  6.3578200e-01   2.4966870e-02
  5.6019533e-01   2.9823752e-02
 -3.1881839e-01   3.4137359e-03
  3.0629048e-01   2.8772872e-02
  1.1401949e+00   1.8491380e-02
 -1.0156513e+00   7.1586348e-02
 -3.7798414e-01   4.8921290e-03
  6.9151860e-01   3.1225361e-02
 -5.4731905e-01   3.8896010e-03
 -2.6124761e-01   6.8702929e-02
 -4.8765054e-01   1.4501638e-02
 -1.2191951e+00   1.1835791e-02
  8.5211217e-01   4.7259979e-04
  1.4017522e-01   4.5771595e-02
 -1.5174452e+00   2.5492016e-02
 -3.7088531e-01   3.6715608e-02
  2.0444198e-01   1.7178521e-02
 -1.1347914e+00   2.1026921e-02
 -8.9265561e-01   6.8408325e-02
 -4.8492038e-01   1.0305806e-02
  8.1738329e-01   2.5089413e-02
 -8.1017397e-02   8.1847452e-02
 -8.6687064e-01   7.0217913e-03
  1.2830573e-01   7.1869723e-02
 -4.4015107e-01   1.5167004e-03
 -1.5084289e+00   1.2914688e-02
  2.3492597e-01   6.8367936e-02
 -6.3499552e-01   9.7030178e-02
  8.4954984e-03   1.6884364e-03
  1.6308150e-01   1.7411109e-04
  7.3834997e-01   1.3184047e-03
  2.6994494e-01   8.5914247e-03
 -4.5565243e+00   2.2348677e-04
  2.2577362e+00   1.2002441e-03
 -3.3014107e-01   3.5086103e-02
 -4.5828447e-01   5.7021964e-02
 -1.4563539e+00   5.6298440e-03
 -2.6760023e+00   6.6157612e-03
  5.3467292e-01   1.4155346e-02
  3.4270614e-01   1.4334853e-02
  5.8333653e-01   1.2952538e-03
  2.5430386e+00   9.7193355e-05
 -7.9901612e-01   1.2873115e-02
  5.6552732e-01   2.1913054e-03
 -2.3812654e+00   6.7128480e-04
  3.5839254e-01   6.4081840e-02
 -1.1274213e-01   4.1909218e-02
 -4.7443175e-01   4.0850495e-03
  2.4754855e-01   8.7079257e-02
  2.7802798e-01   2.2789422e-02
 -1.7545801e-01   2.4257656e-03
  1.3101252e+00   7.9612983e-03
 -2.0176713e+00   2.5505014e-02
 -5.8405888e-01   3.5676818e-02
  7.2667748e-01   6.9413610e-02
  5.2276009e-01   1.0838354e-02