90
Lattice="15.883555000 0.000000000 0.000000000 0.000000000 16.274882000 0.000000000 0.000000000 0.000000000 30.000000000" Energy=-676.672749180 Properties=species:S:1:pos:R:3:force:R:3 Virial="-3.30063000 2.07218000 3.19011000 2.07218000 19.85802000 -1.71924000 3.19011000 -1.71924000 -1.55730000" pbc="T T T" Config_type=POSCAR_0_SCF weight=1.0
Mo     15.81730000      3.77088000      6.80741000      1.11335100     -3.92869900      0.10054300
Mo      1.63147000      0.85479000      7.00679000     -1.92697000      1.62056200     -0.34366500
Mo      0.04558000      9.04908000      6.71103000      0.59649900      0.19345300      1.51871800
Mo      1.49677000      6.40736000      6.66424000      1.71704100     -0.66160800      2.51945000
Mo     15.85530000     14.44690000      6.80247000      0.75575400      1.63331600      2.46805000
Mo      1.61369000     11.60250000      6.83804000     -0.44722600      4.37314500     -0.70868700
Mo      3.20902000      3.61811000      6.85887000     -0.54336800     -0.17327900     -0.48161000
Mo      4.79126000      0.94001000      7.01848000     -1.61243200     -1.29033600      0.08117600
Mo      3.19014000      9.08358000      6.79299000      0.05549300     -0.78552000      0.85597100
Mo      4.79203000      6.32700000      6.80553000     -1.83249600     -1.48650700      1.13291000
Mo      3.16462000     14.56260000      7.05269000      0.70247100     -1.65920800     -1.34379200
Mo      4.79229000     11.67880000      6.80963000     -0.24785000      1.23089900      1.13486900
Mo      6.27169000      3.54201000      6.81733000      1.27437000      0.98414800      1.90162800
Mo      7.87672000      0.90556000      7.17099000      0.07371300     -0.89451600     -2.84786100
Mo      6.37723000      9.05000000      6.86058000     -0.08441600     -0.21923700      0.98115200
Mo      7.89507000      6.27395000      6.94550000      0.41576600      1.39476700      0.24795000
Mo      6.29656000     14.48590000      6.91782000      1.04425600     -1.67264300      0.76785700
Mo      8.03922000     11.65790000      6.79823000     -0.89155200      0.45520700      1.50128500
Mo      9.49025000      3.66582000      7.07691000     -0.28472900     -1.03112200     -0.24357800
Mo     11.12230000      0.95478000      7.00824000     -1.38934900     -1.22506000      0.99237900
Mo      9.62725000      8.99044000      6.86309000     -0.57207600      1.80186900      1.55342400
Mo     11.15830000      6.38306000      6.99692000     -0.76231500     -1.08217600     -0.59146900
Mo      9.51639000     14.34060000      7.05128000     -0.17641300      1.33465100     -0.52487400
Mo     11.13440000     11.77640000      6.85693000      1.06354600     -0.84600500      1.30051600
Mo     12.58100000      3.58827000      7.02677000      1.18411800      0.49288000     -0.38573400
Mo     14.15220000      0.84659000      6.88148000      1.04256900      0.67806100      2.01286900
Mo     12.78780000      8.94468000      6.89123000     -0.39902300      3.90131000     -0.13029800
Mo     14.49230000      6.53819000      6.93357000     -3.64750200     -2.74291300     -1.89395800
Mo     12.72300000     14.49870000      6.93568000     -0.83316800     -0.18907700     -0.10428100
Mo     14.35580000     11.89990000      6.81354000     -0.71394100     -2.51496300      0.24643900
S     15.79200000      1.72053000      5.42311000      0.76686300      0.70609200     -0.24586600
S      1.71954000      4.56916000      5.21452000     -1.26293100     -0.83207400     -0.25813900
S     15.75420000      1.87745000      8.44483000      0.43309800      0.03064300     -0.71844600
S      1.53797000      4.49443000      8.25071000      0.48715600      1.54803500      1.23889200
S      0.01943000      7.30970000      5.02830000     -0.38249400     -0.00613600      1.17384000
S      1.63252000     10.00220000      5.17992000      0.11262200     -0.88474500     -0.31922000
S      0.13042000      7.25495000      8.51624000      0.24646900      0.90145300     -1.08624000
S      1.54570000      9.97584000      8.41872000      0.51362300     -1.52164800     -0.22873000
S     15.86100000     12.78510000      5.22411000      0.78336700     -1.36355700     -0.45286800
S      1.62492000     15.33960000      5.43508000      0.08750900      0.71476100     -0.97426200
S      0.11756000     12.65190000      8.34695000     -0.51536200     -0.05884500      0.58937900
S      1.59773000     15.37850000      8.54249000     -1.10797800     -0.34740500      0.49450100
S      3.12590000      1.74662000      5.41126000      0.61917100     -0.10016400     -0.10041200
S      4.81272000      4.38591000      5.15006000     -0.46507500      0.85246100      0.98717800
S      3.12291000      1.87130000      8.59480000      0.40041200     -0.01251300     -0.78459800
S      4.72410000      4.54399000      8.41232000      0.24251200      0.01672700     -0.28671200
S      3.18456000      7.15787000      5.23460000      0.48479800      1.26024700     -0.38240100
S      4.83180000      9.97724000      5.25423000     -0.23042300     -0.93493900     -0.37401900
S      3.12603000      7.18407000      8.36458000     -0.02494700      0.56817700     -1.09347300
S      4.74189000     10.00190000      8.52366000      0.19576800     -0.74646200     -1.47652000
S      3.13752000     12.78750000      5.40442000      0.56477700     -0.60126700     -0.46273200
S      4.71059000     15.36610000      5.44257000      0.18234900      0.67370300     -0.35113500
S      3.24929000     12.63190000      8.36775000     -0.56259300     -0.79275600      0.90500800
S      4.79859000     15.31050000      8.60622000     -0.04078600      0.77791100     -0.20567700
S      6.30076000      1.71642000      5.39202000      0.82229900     -0.55593500      0.05006300
S      8.00693000      4.44055000      5.35769000     -0.50569400      0.37540200      0.34604300
S      6.25649000      1.83440000      8.62720000      0.33280300      0.49630800     -0.24655600
S      7.79314000      4.49563000      8.48233000     -0.15030400     -0.00495300      0.36832600
S      6.32804000      7.16191000      5.38605000      1.30031800      0.83700000     -1.41896100
S      8.07533000      9.83229000      5.27871000     -0.63779600      0.16006400     -0.23631900
S      6.21330000      7.26653000      8.49164000      0.88961500     -0.10281400     -0.68161200
S      8.08898000      9.90632000      8.42363000     -0.96665000     -0.06637800     -0.28918700
S      6.37119000     12.54460000      5.31821000      0.27700600      1.19618500     -0.51043100
S      7.99558000     15.21470000      5.47814000     -0.43055300      1.71605700     -0.03950600
S      6.36948000     12.58560000      8.34428000      0.30390000     -0.27160800      0.31203700
S      7.91943000     15.29090000      8.61600000     -0.38452700     -0.31071700     -0.23130500
S      9.42413000      1.84066000      5.54345000      0.29407800     -0.39423700      0.06358000
S     11.06090000      4.49834000      5.49867000      0.00079200      0.49907200     -0.38836100
S      9.49506000      1.73840000      8.61624000      0.39754700      0.95170200      0.45517000
S     11.02710000      4.57913000      8.67789000      0.59339300      0.16527600     -0.80564200
S      9.55469000      7.27664000      5.41548000     -0.05165900     -1.99848100     -0.94657300
S     11.18270000      9.95203000      5.34823000      0.42184900     -0.37207100     -0.46393300
S      9.50877000      7.34069000      8.53665000      0.02844900     -1.16027500     -0.36124800
S     11.24480000      9.92291000      8.43565000     -0.24428000      0.13331700     -0.09770300
S      9.58070000     12.65640000      5.35831000     -0.13452000      0.22847000     -1.00486100
S     11.01340000     15.40260000      5.50120000      0.36283500     -0.17085100     -0.40492900
S      9.54066000     12.51370000      8.48211000     -0.03643300     -0.33118800      0.41609000
S     11.05790000     15.24820000      8.59566000      0.86518500      0.93205200     -0.40875300
S     12.64240000      1.76492000      5.35948000     -0.53319900      0.77310900      0.16726800
S     14.24830000      4.56644000      5.40945000     -1.33933100      1.00818900     -0.81184900
S     12.59370000      1.85548000      8.68995000      0.76315200     -0.62134400     -1.30441800
S     14.26090000      4.55987000      8.40370000      0.46302600      0.79622300      0.65651900
S     12.72780000      7.31816000      5.32853000      0.31016600     -1.75136100     -0.26991700
S     14.30670000     10.07530000      5.24863000     -0.19138600     -0.58933500      0.29740600
S     12.72720000      7.23898000      8.47071000      1.23925300      0.08466900      0.98864700
S     14.37110000      9.96607000      8.37961000      0.18577900      0.31667600     -0.54206000
S     12.66590000     12.68960000      5.30404000      0.26666400      0.64265300     -0.19957700
S     14.21120000     15.31760000      5.26957000      0.12800400      0.58824800      0.25920100
S     12.79680000     12.69790000      8.38194000     -0.47596300     -0.55543100      0.91121300
S     14.34160000     15.36800000      8.53124000     -0.36584500     -0.18279100     -0.93259000
90
Lattice="15.733769000 0.000000000 0.000000000 0.000000000 16.310078000 0.000000000 0.000000000 0.000000000 30.000000000" Energy=-678.245587430 Properties=species:S:1:pos:R:3:force:R:3 Virial="9.63953000 0.50903000 2.02316000 0.50903000 17.37330000 14.09412000 2.02316000 14.09412000 -6.30208000" pbc="T T T" Config_type=POSCAR_10_SCF weight=1.0
Mo      0.00530000      3.54509000      6.86137000      1.45600100      1.99194400      1.10940800
Mo      1.61839000      0.89630000      6.83617000     -0.51859600     -0.23280600      0.23897400
Mo     15.70520000      9.03473000      6.77726000     -0.45419000      1.03583500      0.88781500
Mo      1.60306000      6.42049000      6.95818000     -0.78318400     -1.65305900     -0.48628900
Mo     15.72930000     14.56460000      6.92175000     -0.92771400     -1.69315900     -0.37080700
Mo      1.54664000     11.77490000      6.83956000     -0.58080200     -0.62121100     -1.27973400
Mo      3.17627000      3.58752000      6.95323000     -0.26099900     -0.12399100     -0.26550800
Mo      4.72369000      0.98041000      7.03006000      0.87708600     -0.80358600     -1.70541900
Mo      3.04254000      9.01105000      6.86502000      1.79306400      1.72470500     -0.85065800
Mo      4.71441000      6.43295000      6.93494000     -0.38263000     -2.05150500     -0.31856600
Mo      3.13827000     14.45200000      6.99543000      0.38481300      1.80546100     -2.83110700
Mo      4.73038000     11.75270000      6.86823000     -1.02105400      0.20743200     -0.82025200
Mo      6.31286000      3.62719000      7.12376000      0.68750800     -0.41618100     -1.54965200
Mo      7.79905000      0.98859000      6.98711000      1.57628600     -0.79706700      0.89167700
Mo      6.24726000      9.04176000      6.83300000      0.93140600      0.69912400      0.89641200
Mo      7.92156000      6.30510000      6.95737000     -0.35902100      0.61566000     -0.08321000
Mo      6.24524000     14.40240000      6.91197000      1.75908600      1.70346500     -1.00635600
Mo      7.79160000     11.86950000      6.81499000      0.06363700     -0.56509100      1.27149300
Mo      9.60646000      3.61563000      7.02341000     -2.59891000     -0.22063000      0.63942300
Mo     10.99280000      0.93490000      6.99318000      0.72532600     -0.27528600      0.04377300
Mo      9.42534000      8.98338000      6.98874000     -0.11801600      1.98810600     -0.52519700
Mo     11.21910000      6.27908000      6.97829000     -2.88660200     -0.26637300     -0.47958700
Mo      9.42801000     14.51230000      6.90240000     -0.84830600      0.49585600      0.23787800
Mo     10.89650000     11.77890000      6.84963000      1.14627200      0.16780500     -0.31061200
Mo     12.70530000      3.59053000      6.91046000     -1.67742500      1.77233300      0.67458200
Mo     14.19590000      0.88431000      6.81430000     -0.95970900      0.26347900      0.29072400
Mo     12.55450000      9.05357000      6.92101000     -0.24827500     -0.13559600     -0.02265000
Mo     14.26720000      6.34020000      6.89814000     -1.41146700     -0.14966200      0.64766100
Mo     12.60560000     14.55520000      6.81449000     -1.77819600     -0.44215000      0.16687300
Mo     14.01520000     11.81240000      6.76913000      2.04035600     -0.65389300      0.94551900
S     15.68520000      1.90730000      5.23368000      0.80929300     -1.25198600      0.00056100
S      1.68374000      4.56033000      5.41745000     -0.67143400     -0.16701100     -0.33787200
S      0.06015000      1.70525000      8.42552000     -0.43775800      0.30515200     -0.23000700
S      1.60877000      4.56069000      8.50044000     -0.37624400     -0.45017300     -0.30238000
S      0.00989000      7.21770000      5.28917000      0.51969500     -0.10976000     -0.20725600
S      1.50122000      9.91798000      5.13782000      0.32545300      0.45017300      1.25876600
S     15.69160000      7.27127000      8.44596000      0.85684100      0.69371500      0.65732300
S      1.53182000      9.95874000      8.35775000     -0.58325800      0.16933500      0.52892100
S     15.64670000     12.64190000      5.23974000      0.54038600      0.99610600      0.69434300
S      1.49617000     15.38100000      5.39725000      1.54853400     -0.18585200     -0.85177700
S     15.63760000     12.64440000      8.37345000      0.12706100      0.22645000     -0.07213600
S      1.70029000     15.30910000      8.60084000     -1.50338300      1.06160500     -0.82265600
S      3.24658000      1.79125000      5.22703000     -0.34165500      0.25578600      1.37584300
S      4.79212000      4.49116000      5.53418000      0.02860700      0.56465800     -1.11976600
S      3.10271000      1.75550000      8.44429000     -0.40073600      0.48624000      1.26005900
S      4.69884000      4.48795000      8.52075000     -0.50609300      1.41829800      1.00407500
S      3.08517000      7.21953000      5.35784000      0.67325700      0.00060000     -0.80481200
S      4.69813000      9.87572000      5.26948000     -0.52303500      0.57225300      0.31589700
S      3.14551000      7.31675000      8.47992000      0.01119000     -0.09201400      0.87646500
S      4.72259000      9.96741000      8.44491000     -0.76844800     -0.38023300     -0.46726900
S      3.18139000     12.70260000      5.32315000     -0.40469600      0.00688500      0.02685100
S      4.80903000     15.49930000      5.49001000     -1.41030600     -0.46273700     -1.12654900
S      3.05850000     12.70500000      8.40948000      0.61021600     -1.80769800      1.15250400
S      4.80326000     15.36100000      8.44708000     -0.98462800      0.29820900      1.35284100
S      6.34963000      1.87037000      5.45115000     -0.97454900      0.50440200     -0.14227600
S      7.83547000      4.44564000      5.48320000      0.95396700      0.22801200      0.08242400
S      6.23254000      1.85752000      8.66779000      0.44649600     -0.57214500      0.04019800
S      7.92265000      4.54214000      8.59854000      0.61028300      0.15917800     -0.03393000
S      6.28944000      7.25064000      5.30684000      0.46390300     -0.62561200      0.15729500
S      7.89993000      9.98264000      5.33866000     -0.20934400     -0.35060200      0.26525200
S      6.27677000      7.26527000      8.41399000      0.67628300      0.37391100      0.94924100
S      7.69571000     10.06390000      8.51588000      0.94078300     -0.47869100     -1.29078300
S      6.24987000     12.74250000      5.17454000     -0.15052600     -0.53144100      0.97773300
S      7.88703000     15.55530000      5.33972000     -0.67209800     -0.82736400      0.55249900
S      6.11436000     12.70950000      8.51103000      1.34524300     -0.76144600     -0.27615600
S      7.79524000     15.38970000      8.43018000      0.26096800     -0.22237000      0.46934400
S      9.49865000      1.81311000      5.45365000     -0.95108100      0.62135400     -0.23529800
S     10.98590000      4.47627000      5.33210000      1.31416000      0.41024100      0.83019800
S      9.45292000      1.71045000      8.61438000     -0.18401900      0.99369800     -0.31859100
S     11.10370000      4.44237000      8.69310000      0.91005300      0.46712400     -1.62527600
S      9.51599000      7.18992000      5.37992000      0.22229400     -0.25113000      0.73913500
S     10.95210000      9.89905000      5.34467000     -0.26616000      0.02841400      0.35315800
S      9.54472000      7.24914000      8.53429000     -0.18300500     -0.91984900     -0.15155100
S     10.97690000     10.00300000      8.57275000     -0.14821400     -0.21557200     -1.22561400
S      9.36566000     12.82790000      5.23667000      0.18632400     -0.88929700      0.43766300
S     10.87530000     15.55190000      5.40108000      1.31670200     -0.72813100     -0.92908700
S      9.42228000     12.69430000      8.44501000     -0.64048000     -0.07195100     -0.16618000
S     10.93260000     15.40540000      8.50975000      1.04193900     -0.41996400     -0.29233500
S     12.48680000      1.92061000      5.31442000      0.86374100     -1.34319800      0.15045500
S     14.25500000      4.63068000      5.31643000     -0.35273600     -1.38857400     -0.15727400
S     12.65110000      1.77539000      8.45512000      0.51078900      0.04158800      0.12457300
S     14.29000000      4.49690000      8.48964000     -0.32542900     -0.07384700     -0.24901000
S     12.70480000      7.21789000      5.33811000     -0.61720100      0.19378100      0.24221500
S     14.02920000     10.01050000      5.31635000      0.28461600     -0.87065800     -0.83939100
S     12.64130000      7.26037000      8.52156000      0.85848100      0.02128800      0.02413700
S     14.13670000      9.98010000      8.40176000      0.25117700      0.24289200     -0.23643100
S     12.52100000     12.79610000      5.24005000     -0.75844000     -0.60052200     -0.16293400
S     14.21100000     15.46030000      5.17284000     -0.27237600     -0.38750700      1.06855200
S     12.56340000     12.58130000      8.38028000     -0.88711700      1.45245800      0.10416200
S     14.03580000     15.35830000      8.40567000      1.36996900      0.82356600      0.56530500
90
Lattice="15.742529000 0.000000000 0.000000000 0.000000000 16.447192000 0.000000000 0.000000000 0.000000000 30.000000000" Energy=-678.927485830 Properties=species:S:1:pos:R:3:force:R:3 Virial="-0.04846000 1.97055000 11.89909000 1.97055000 -8.76165000 4.35439000 11.89909000 4.35439000 -23.13176000" pbc="T T T" Config_type=POSCAR_11_SCF weight=1.0
Mo     15.64660000      3.71790000      6.97063000      0.78696200     -0.04569800     -1.15340100
Mo      1.43796000      0.96822000      6.99630000      1.88775800      0.43565100     -1.88095300
Mo      0.09578000      9.22059000      6.86248000     -0.75688800     -1.06347900      0.47834100
Mo      1.62687000      6.40419000      6.84971000     -1.89800400     -0.30854700      0.88023000
Mo     15.67080000     14.59020000      6.84550000      1.94711400      1.05651400      1.24578800
Mo      1.68349000     11.91910000      6.77571000     -0.70230700     -0.83677000      0.24836100
Mo      3.13650000      3.67467000      6.89964000     -0.67448300     -0.65298900     -0.26419400
Mo      4.71677000      0.86060000      6.94748000     -0.80046000      1.07605200     -0.77715500
Mo      3.15153000      9.09856000      6.95821000      1.13252600     -0.37297500     -1.95049700
Mo      4.76191000      6.35761000      6.96533000     -0.96782300     -0.41904500     -3.05582000
Mo      3.15578000     14.67610000      6.90302000     -0.64528100     -1.31913600     -0.71166500
Mo      4.86026000     11.86620000      6.80163000     -1.51097200     -0.34304500      1.21917600
Mo      6.32435000      3.59427000      6.92468000     -0.98852800      0.44134400     -0.66477500
Mo      7.78002000      1.00846000      6.90612000      0.54676500     -1.62059400     -0.66877300
Mo      6.36296000      9.02138000      6.86594000     -1.13515800     -0.11443600      0.49416100
Mo      7.93273000      6.42152000      6.85250000     -0.50559300     -1.14420800      0.27977700
Mo      6.29077000     14.59410000      6.85085000     -0.40124700     -0.24124800      0.34208300
Mo      7.82769000     11.79420000      6.81736000      1.56762500      1.20337700      2.52627900
Mo      9.38991000      3.61304000      6.97798000      1.32554900      1.37393700     -1.42648200
Mo     10.97550000      0.85162000      6.96896000     -1.20869800      0.96513100     -0.66390500
Mo      9.44737000      9.10344000      6.91208000      0.72552900      0.73409200     -1.04300700
Mo     11.04090000      6.50546000      7.00604000     -0.65298400     -1.21178800     -1.37188500
Mo      9.45007000     14.68570000      6.85609000     -0.51228100     -1.82922000      0.07707700
Mo     11.05410000     11.91820000      6.91795000     -0.03758000     -0.39074100      0.07907600
Mo     12.55290000      3.64941000      6.95649000     -0.41730900     -0.04242600     -1.22077900
Mo     14.08700000      0.89444000      7.04906000     -0.28980800      1.36277500     -1.91419000
Mo     12.70280000      9.17302000      6.89304000     -0.50127300     -0.25027400      0.08042100
Mo     14.08510000      6.32551000      7.00042000      0.79159700      2.28503700     -1.52257100
Mo     12.66020000     14.53090000      6.88425000     -1.50595900      2.65354100      1.14043900
Mo     14.23080000     11.95920000      6.89302000     -1.29210000     -2.03298800     -0.91797100
S     15.60810000      1.86247000      5.35168000      0.11428400      0.09024900      1.29251300
S      1.49306000      4.60647000      5.29218000      0.34346300     -0.50419900      0.84474400
S     15.68380000      1.94396000      8.50481000     -0.48447300     -0.55699800      0.99336900
S      1.62097000      4.61754000      8.51438000     -0.62471300      0.02226800     -0.76251000
S     15.71920000      7.33430000      5.32506000     -0.09285200     -0.23266300      0.92048200
S      1.68859000     10.09450000      5.29454000     -0.08124500     -0.54914600     -0.08491600
S     15.70540000      7.34599000      8.54323000      0.61444000     -0.14385500     -1.50155500
S      1.67625000     10.01970000      8.49455000     -0.62987000      0.96498400     -0.46174900
S     15.73600000     12.85530000      5.23396000      0.43711400     -0.28212600      0.19567100
S      1.59372000     15.64520000      5.34685000     -0.81876200     -0.41900700      0.35606800
S      0.10271000     12.68300000      8.34127000      0.17866800      1.33476000      1.11902100
S      1.50327000     15.55600000      8.40438000     -0.15156800     -0.54383200      0.82555900
S      3.09184000      1.78200000      5.31279000     -0.20834700      0.33002300      1.42845500
S      4.70351000      4.47331000      5.34073000      0.59372700      0.67059000      0.34171300
S      3.11794000      1.90094000      8.53091000     -0.04000200     -0.57741400     -0.65331100
S      4.71757000      4.59695000      8.45936000      0.24939400     -1.20646700      0.45316700
S      3.20415000      7.27367000      5.33943000      0.09524800      0.30495400      0.10264400
S      4.82304000      9.98782000      5.29720000     -0.60763900     -0.22693800      0.52754100
S      3.10945000      7.20020000      8.47832000      0.50280000      0.86856800      0.24031000
S      4.73221000      9.93110000      8.45155000      0.95993500      0.89228600     -0.28245000
S      3.29340000     12.86480000      5.24567000     -0.35710300     -0.04360100      0.42216200
S      4.66688000     15.53570000      5.33229000      0.52192400      0.21674800     -0.20872700
S      3.19536000     12.72970000      8.36932000      0.61463000      0.56914700      0.07440100
S      4.70393000     15.45470000      8.43520000      0.40551000      0.32395300      0.82318600
S      6.19180000      1.81863000      5.26503000      0.36365200      0.07820200      0.98505800
S      8.01256000      4.60284000      5.30321000     -1.11285400     -0.63464500      0.56787100
S      6.25095000      1.69377000      8.56090000     -0.15260800      1.26362400     -0.37758200
S      7.85125000      4.57697000      8.45589000     -0.06910000      0.27914200      0.33886700
S      6.32603000      7.18185000      5.23615000     -0.08556900      0.49316600      0.96090200
S      7.83970000     10.03470000      5.33011000      0.70999000     -1.00975600     -0.69361500
S      6.25884000      7.13841000      8.46071000      1.42119200      1.48455900      0.55620500
S      7.89857000      9.90064000      8.48281000     -0.48663800      1.04340600     -0.32768100
S      6.37983000     12.77520000      5.24278000     -0.18354000      0.23793300     -0.19020400
S      7.76844000     15.59150000      5.34743000      1.04538700      0.28845200     -0.56602700
S      6.34462000     12.81210000      8.46697000     -0.11925400     -0.62253700     -0.70432200
S      7.84230000     15.56110000      8.37649000      0.03233500      0.08807400      0.43601000
S      9.41759000      1.84219000      5.33807000      0.01272200     -0.26426600      0.62721400
S     11.01750000      4.52999000      5.41408000     -0.41196700      0.78982100      0.31627400
S      9.32187000      1.89272000      8.52462000      0.50014700     -1.18853000      0.17816100
S     10.96820000      4.65854000      8.48436000      0.05864000     -0.62860300      0.46356600
S      9.53660000      7.32863000      5.29949000     -0.14297500      0.01880500      0.48362700
S     11.12430000     10.11700000      5.33955000     -0.51241200     -0.48604800      0.31684400
S      9.41564000      7.33286000      8.51115000      0.05555200      0.07709300      0.06368900
S     11.05740000     10.03510000      8.41465000      0.07566100      0.38663300      0.28821200
S      9.48985000     12.68760000      5.31571000     -0.44042600      1.12052400      0.23969200
S     11.11940000     15.51490000      5.34224000     -0.59899700      0.04016400      0.18181000
S      9.39771000     12.83840000      8.51425000      0.03384000     -0.34126400     -1.54608900
S     10.90360000     15.49100000      8.55750000      1.01914700     -0.10015600     -0.94699200
S     12.42980000      1.77245000      5.30907000      1.10652000      0.23501100      1.41912700
S     14.08250000      4.55501000      5.33739000      0.12091000      0.12503900      0.63168400
S     12.42710000      1.90491000      8.48047000      0.69208900     -1.00869900      1.09481800
S     14.02350000      4.59533000      8.52037000      0.78850700     -0.54810400      0.91454600
S     12.54950000      7.31874000      5.37337000      0.81222500      0.01339500      0.29302400
S     14.25410000     10.11820000      5.28230000     -0.04381200      0.03713100      0.62192400
S     12.60420000      7.40596000      8.57990000      0.15994500     -0.07870800     -0.48495100
S     14.27130000     10.05570000      8.48130000     -0.03470200      0.66242400     -0.58806600
S     12.60730000     12.85060000      5.27983000      0.22019600     -0.83151200      0.26316600
S     14.23070000     15.65150000      5.37981000     -1.08298000     -0.54837100     -0.36763800
S     12.57760000     12.80330000      8.50249000      0.69038700     -0.31720200     -0.10475200
S     14.07820000     15.54000000      8.55385000      0.71753600     -0.80432800     -0.23334100
90
Lattice="15.885645000 0.000000000 0.000000000 0.000000000 16.397459000 0.000000000 0.000000000 0.000000000 30.000000000" Energy=-676.690773940 Properties=species:S:1:pos:R:3:force:R:3 Virial="-5.71575000 -1.27190000 10.99697000 -1.27190000 7.31463000 20.97999000 10.99697000 20.97999000 11.55266000" pbc="T T T" Config_type=POSCAR_12_SCF weight=1.0
Mo      0.03486000      3.68077000      6.87092000      0.08793300     -0.64926300      0.64358700
Mo      1.59140000      0.98806000      6.95533000     -1.44664300     -0.94578000     -0.48574300
Mo      0.00340000      8.94916000      6.87382000      0.03058900      2.55233700      1.78139700
Mo      1.43582000      6.36225000      6.95011000      4.39578900     -0.28797700     -0.55125100
Mo     15.83750000     14.51120000      6.97484000      0.42544600      1.56794700     -0.12889700
Mo      1.56774000     11.92920000      6.98209000     -0.32596900     -1.20012000     -0.90839800
Mo      3.16638000      3.59064000      6.84584000      0.70580500      0.35475900     -0.60799300
Mo      4.68937000      0.95736000      6.88120000      0.21915600     -2.09317500     -1.12244000
Mo      3.22415000      9.04078000      6.83958000     -0.55209600      1.58296800      2.70738900
Mo      4.87215000      6.33254000      6.90113000     -2.81708400      1.06758900      1.55290400
Mo      3.03536000     14.56040000      6.92336000      1.43648600      0.39973000     -0.88015200
Mo      4.72223000     11.81350000      6.93968000      0.29986300      1.75032200      0.28203100
Mo      6.36093000      3.62696000      6.91503000      0.11634900     -0.72502600     -1.99986500
Mo      7.98623000      0.95244000      6.93108000     -0.31801800     -0.37295500     -0.65247100
Mo      6.38667000      9.20744000      7.00047000     -0.52229100     -2.27988200     -1.30261500
Mo      7.90052000      6.45555000      6.77741000      0.47238900     -0.29252400      1.34170000
Mo      6.37812000     14.57520000      7.06017000     -0.99081900     -0.64043700     -0.60032900
Mo      7.86236000     11.77160000      6.87810000      1.38636500      1.51166900      0.41655900
Mo      9.52048000      3.67078000      6.74989000      1.26108400      0.61036200      1.30871100
Mo     11.14970000      0.89715000      6.84843000     -0.02848500      0.61423800      0.15964200